ITEM: TIMESTEP
336
ITEM: NUMBER OF ATOMS
14
ITEM: BOX BOUNDS pp pp pp
-2.0000000000000000e+001 2.0000000000000000e+001
-2.0000000000000000e+001 2.0000000000000000e+001
-2.0000000000000000e+001 2.0000000000000000e+001
ITEM: ATOMS x y z 
4.25976 1.47669 0.386478 
6.16527 3.31206 0.878888 
1.9593 0.750545 3.90869 
5.64684 -0.313758 1.82483 
2.05116 2.09023 1.6601 
7.54211 1.51821 2.32228 
0.627922 6.6496 2.20424 
2.41651 4.77509 2.60633 
5.21779 5.41423 2.59789 
1.24228 2.69017 6.11365 
3.24127 4.91263 6.58432 
5.51463 4.54722 5.32473 
-0.00287878 7.62892 4.54944 
2.13965 7.68022 6.06192 
